41
	Energy:    1050.1289835
C          2.43531        1.00785       -0.56721
C          3.57188        0.06602       -0.18389
H          1.48719        0.43560       -0.64803
H          2.64577        1.48856       -1.54650
H          2.30997        1.79590        0.20587
C          4.89467        0.82970       -0.09083
H          3.67017       -0.71993       -0.96222
H          3.32052       -0.42669        0.78144
O          4.99024        1.54983        1.11396
C          5.83418        0.42349        0.98397
H          5.27442        1.42711       -0.94726
C          7.29073        0.87757        0.86717
H          5.54115       -0.33460        1.74136
C          8.19541       -0.29886        0.49364
H          7.60861        1.29048        1.84919
H          7.39612        1.68076        0.10368
C          9.65368        0.16273        0.42451
H          7.86418       -0.72474       -0.48012
H          8.11461       -1.09116        1.26858
O          9.91205        0.84770       -0.77433
C         10.51179       -0.42523       -0.63586
H         10.13526        0.66637        1.28991
C         12.02785       -0.25123       -0.51154
H         10.08770       -1.09857       -1.41127
C         12.70779       -1.58654       -0.20301
H         12.27976        0.48342        0.28593
H         12.41313        0.14139       -1.47755
C         14.22265       -1.39119       -0.07867
H         12.46373       -2.31834       -1.00545
H         12.32563       -1.98496        0.76131
O         14.81185       -1.19386       -1.34327
C         15.10087       -2.41498       -0.69948
H         14.64421       -0.67476        0.65865
C         16.56864       -2.44615       -0.26809
H         14.66861       -3.25096       -1.28982
C         16.82898       -3.63743        0.64419
H         16.85446       -1.51262        0.26556
H         17.20634       -2.53647       -1.17345
H         16.21007       -3.55999        1.56335
H         17.90062       -3.65620        0.93501
H         16.58661       -4.58553        0.11808
