12
	Energy:      20.2009534
C         -2.76934       -0.03105        0.13614
O         -1.79454        0.72316       -0.57193
C         -0.82737       -0.05538        0.01018
O          0.33746        0.29910        0.05424
C         -1.78365       -0.88471        0.94020
O         -2.06010       -2.30227        0.87580
C         -1.21744       -1.86070       -0.13570
H         -1.65204       -1.97524       -1.13053
H         -0.22553       -2.31216       -0.07337
C         -3.82302       -0.02897       -0.21181
H         -3.36927        0.63922        0.76934
N         -4.55139       -0.53303       -0.93014
