73
	Energy:     880.2206312
C          4.38571       -2.66729       -0.90328
C          5.62825       -2.22398       -0.13662
H          3.67094       -1.81953       -0.97307
H          3.88636       -3.50800       -0.37642
H          4.65791       -2.98738       -1.93117
C          6.65285       -3.35843       -0.01051
H          5.31685       -1.88702        0.87682
H          6.09075       -1.36389       -0.66907
C          7.85308       -2.86860        0.80457
H          6.96049       -3.69821       -1.02424
H          6.19234       -4.21824        0.52210
O          8.96682       -3.73728        0.70076
C          9.07836       -2.48710        0.06250
H          7.71891       -2.58028        1.86974
C          9.91597       -1.44393        0.80134
H          9.01919       -2.53153       -1.04610
C         11.35617       -1.32540        0.27688
H          9.91907       -1.61385        1.90169
H          9.42142       -0.46724        0.60951
C         12.16746       -0.21913        1.05876
C         12.95315       -1.41582        1.43566
H         11.70041        0.20742        1.97251
H         12.79597        0.45260        0.43635
O         13.95073       -1.56611        2.12145
N         12.27039       -2.33543        0.77021
H         11.42519       -1.20918       -0.82873
C         12.46649       -3.76111        0.58971
C         13.84107       -4.00456       -0.05203
H         11.66975       -4.15934       -0.07437
H         12.40659       -4.27216        1.57417
C         14.12463       -5.48632       -0.33058
H         14.63887       -3.58548        0.59835
H         13.86105       -3.45629       -1.02034
O         15.29602       -5.51036       -1.11785
C         15.41828       -6.10011        0.14426
H         13.36735       -6.07817       -0.88713
C         15.64619       -7.60332       -0.07525
H         16.15086       -5.50208        0.72210
C         15.67305       -8.50135        1.18904
H         16.59868       -7.72461       -0.63510
H         14.83157       -7.98283       -0.73350
C         15.74531       -9.95305        0.73160
O         14.81544      -10.70403        0.99286
N         16.84771      -10.42721        0.08214
C         16.98766      -11.82282       -0.29183
H         17.62809       -9.78365       -0.11667
C         18.37871      -12.08366       -0.88624
H         16.19761      -12.09624       -1.02485
H         16.87255      -12.45201        0.61841
C         18.57542      -13.56399       -1.22899
H         19.14531      -11.78392       -0.13706
H         18.51335      -11.46583       -1.80134
C         19.98123      -13.81898       -1.76727
H         17.82961      -13.87432       -1.99240
H         18.43052      -14.18086       -0.31517
H         20.15579      -13.22927       -2.69211
H         20.10115      -14.89732       -2.00288
H         20.74170      -13.53714       -1.00726
C         16.87744       -8.27655        2.14582
H         14.72118       -8.36992        1.75107
C         16.88770       -7.06251        3.03695
H         17.81939       -8.28516        1.55732
H         16.91117       -9.13398        2.85570
O         15.95602       -6.27147        3.04486
N         17.95016       -6.89433        3.87202
C         18.05600       -5.78432        4.79873
H         18.70824       -7.59573        3.84624
C         19.34644       -5.88298        5.61257
H         17.19148       -5.79974        5.49696
H         18.05447       -4.82686        4.23488
H         19.36093       -6.83052        6.19363
H         19.41496       -5.03042        6.31979
H         20.22912       -5.86095        4.93782
